<?xml version="1.0" encoding="UTF-8"?>

<!-- generated on 09/06/19 20:56:09 by Eclipse SUMO GUI Version 1.1.0
<configuration xmlns:xsi="http://www.w3.org/2001/XMLSchema-instance" xsi:noNamespaceSchemaLocation="http://sumo.dlr.de/xsd/sumoConfiguration.xsd">

    <input>
        <net-file value="D:\Github\marl_tsc\networks\data\Grid9.net.xml"/>
        <route-files value="D:\Github\marl_tsc\networks\data\Grid9.rou.xml"/>
        <additional-files value="D:\Github\marl_tsc\networks\data\Grid9.add.xml"/>
    </input>

    <time>
        <begin value="0"/>
        <end value="3600"/>
    </time>

</configuration>
-->

<detector xmlns:xsi="http://www.w3.org/2001/XMLSchema-instance" xsi:noNamespaceSchemaLocation="http://sumo.dlr.de/xsd/det_e2_file.xsd">
</detector>
