<?xml version="1.0" encoding="UTF-8"?>

<!-- generated on 09/03/19 15:26:41 by Eclipse SUMO GUI Version 1.1.0
<configuration xmlns:xsi="http://www.w3.org/2001/XMLSchema-instance" xsi:noNamespaceSchemaLocation="http://sumo.dlr.de/xsd/sumoConfiguration.xsd">

    <input>
        <net-file value="D:\Github\marl_tsc\large_grid\data\exp.net.xml"/>
        <route-files value="D:\Github\marl_tsc\large_grid\data\exp.rou.xml"/>
        <additional-files value="D:\Github\marl_tsc\large_grid\data\exp.add.xml"/>
    </input>

    <time>
        <begin value="0"/>
        <end value="3600"/>
    </time>

</configuration>
-->

<detector xmlns:xsi="http://www.w3.org/2001/XMLSchema-instance" xsi:noNamespaceSchemaLocation="http://sumo.dlr.de/xsd/det_e2_file.xsd">
</detector>
